Title: * spicenetlist
Date: Tue Oct 20 19:24:48  2020
Plotname: Transient Analysis
Flags: real
No. Variables: 8
No. Points: 9593
Variables:
	0	time	time
	1	v(q1_base)	voltage
	2	v(q1_c)	voltage
	3	v(q1_emitter)	voltage
	4	v(antenna_in)	voltage
	5	v(antenna_out)	voltage
	6	i(i(v_v2))	current
	7	i(i(v_v1))	current
Values:
 0	0.000000000000000e+000
	4.419474776785647e+000
	9.000000000000000e+000
	3.588109780118098e+000
	0.000000000000000e+000
	0.000000000000000e+000
	0.000000000000000e+000
	-3.041995975037374e-003

 1	2.000000000000002e-010
	4.428253447427240e+000
	8.997153725620990e+000
	3.588131342418522e+000
	3.416070845000482e-015
	1.510443296968879e-019
	-1.325651044981058e-005
	-3.040806646717063e-003

 2	2.101571461662246e-010
	4.428699212974368e+000
	8.997000303370896e+000
	3.588132504686870e+000
	-3.913698927648808e-014
	1.544068815841996e-019
	-1.404278707184403e-005
	-3.040746533738189e-003

 3	2.304714384986734e-010
	4.429590629436025e+000
	8.996675209217528e+000
	3.588134967474823e+000
	-9.393372755363827e-014
	1.464495290735825e-019
	-1.565263123382010e-005
	-3.040626914286183e-003

 4	2.711000231635711e-010
	4.431372762349027e+000
	8.995911325544171e+000
	3.588140754360907e+000
	-1.090960578257623e-013
	1.117539753659877e-020
	-1.902712230616999e-005
	-3.040391728648777e-003

 5	3.523571924933664e-010
	4.434933983759738e+000
	8.993883849312226e+000
	3.588156113786007e+000
	-5.623824970088328e-014
	-7.361878189521003e-019
	-2.644979920773949e-005
	-3.039942056689637e-003

 6	5.148715311529570e-010
	4.442041997153024e+000
	8.987411256819797e+000
	3.588205148754124e+000
	-7.244922463053013e-015
	-3.307879423124721e-018
	-4.448330552975222e-005
	-3.039168172518162e-003

 7	7.743481224755204e-010
	4.453337665089364e+000
	8.967873724325941e+000
	3.588353169151259e+000
	-4.323848971931694e-014
	-9.219880022354057e-018
	-8.507792517065127e-005
	-3.038542982440575e-003

 8	1.096805887506259e-009
	4.467238196986743e+000
	8.919092863931354e+000
	3.588722777990268e+000
	-4.397881372408086e-014
	-2.056709477109314e-017
	-1.659105211091472e-004
	-3.039753117048702e-003

 9	1.528290495868626e-009
	4.485429382836671e+000
	8.777855203386416e+000
	3.589793084385581e+000
	-7.439816603695482e-014
	-4.612909897105263e-017
	-3.587432833427329e-004
	-3.048753143059621e-003

 10	2.058312622549687e-009
	4.506636756216375e+000
	8.387781042388639e+000
	3.592749728016277e+000
	-2.271683719974923e-013
	-1.110852426089823e-016
	-7.909545276580943e-004
	-3.085119344844536e-003

 11	2.721188059306094e-009
	4.530412290714993e+000
	7.371147197920607e+000
	3.600458563783351e+000
	-7.270225196803764e-013
	-3.479896535460708e-016
	-1.570271312644866e-003
	-3.214261462489862e-003

 12	3.563424005976145e-009
	4.556121771149950e+000
	5.220713665854078e+000
	3.616780384898716e+000
	-2.170520064933693e-012
	-1.424702816915941e-015
	-2.340274894137684e-003
	-3.617170762358108e-003

 13	4.453735641857074e-009
	4.539640940886875e+000
	3.663463893974026e+000
	3.629365269151039e+000
	-4.502107943632738e-012
	-4.856428039921199e-015
	-1.620243464406879e-002
	-4.344230377180971e-003

 14	5.481610916269608e-009
	4.483071113962199e+000
	3.611374375495636e+000
	3.631447569684692e+000
	-7.174369597816404e-012
	-1.473488262274571e-014
	-1.318817374820447e-002
	-5.336846661955538e-003

 15	6.577954615078974e-009
	4.481218012633765e+000
	3.800102554148673e+000
	3.631063030182689e+000
	-9.329776414837486e-012
	-3.648711613690058e-014
	-5.106075615812777e-005
	-6.373606725775648e-003

 16	7.840691644254419e-009
	4.520869036856288e+000
	3.685627629582335e+000
	3.632609720508369e+000
	-1.119019400562432e-011
	-8.192879860329922e-014
	-3.063993083571193e-003
	-7.553200499208821e-003

 17	1.019342738326471e-008
	4.513681112173918e+000
	3.648685186644762e+000
	3.635744075494961e+000
	-1.354248879273499e-011
	-2.486839547910223e-013
	-1.001767724662706e-002
	-9.794752495028104e-003

 18	1.280340108665586e-008
	4.520386212497241e+000
	3.723770190800771e+000
	3.638665325070846e+000
	-1.474754871493768e-011
	-5.957740141098781e-013
	-7.482903256460505e-004
	-1.227033895055420e-002

 19	1.802334849343818e-008
	4.536384413483379e+000
	3.675490360644695e+000
	3.647560572628730e+000
	-1.512063356623623e-011
	-1.989336477101365e-012
	-8.586809074544566e-003
	-1.720863827345862e-002

 20	2.508802877579593e-008
	4.512879384805737e+000
	4.685989274957734e+000
	3.655194418196671e+000
	-1.232448441685871e-011
	-5.688879764875858e-012
	-7.624629054864274e-005
	-2.329183282119594e-002

 21	3.125048283289903e-008
	4.584752640529159e+000
	3.845269178368440e+000
	3.675821401529461e+000
	-9.903131465793543e-012
	-1.080345531455458e-011
	-7.103854828413025e-004
	-2.849114579265009e-002

 22	3.745956563626049e-008
	4.543776071590337e+000
	3.716468063964818e+000
	3.695244709825207e+000
	-8.747955451818889e-012
	-1.774056724008780e-011
	-2.055358000923019e-003
	-3.428396084670566e-002

 23	4.419713132823622e-008
	4.432202022893733e+000
	6.902397045077130e+000
	3.694598936793328e+000
	-1.959836155945228e-012
	-2.702852018416639e-011
	1.949974642775909e-005
	-3.874062604590290e-002

 24	4.910678892118016e-008
	4.333596633734464e+000
	9.424002421369181e+000
	3.693400886145009e+000
	6.899937994571705e-012
	-3.459105851595237e-011
	4.893796326915778e-005
	-3.948877019266180e-002

 25	5.385331158542878e-008
	4.202562816849038e+000
	1.177379863675637e+001
	3.692232451813832e+000
	-9.887143455219045e-001
	-8.223640095214153e-003
	8.748150326765014e-005
	-3.838459039143261e-002

 26	5.901030317971737e-008
	4.027599137719722e+000
	1.392755639500474e+001
	3.690963283272041e+000
	-4.432904483475998e+000
	-8.536643036742131e-002
	1.389414396281430e-004
	-3.644745421380452e-002

 27	6.349967659285548e-008
	3.854793424486817e+000
	1.497809073187341e+001
	3.689858774395459e+000
	-3.964252106292652e+000
	-2.909165816411249e-001
	1.897666508151041e-004
	-3.492191587611883e-002

 28	6.809330840717549e-008
	3.665917008799206e+000
	1.554667733022004e+001
	3.688728957217202e+000
	-5.521197515479477e-001
	-6.782257691709472e-001
	2.453185387273071e-004
	-3.301561132579880e-002

 29	7.231971692717262e-008
	3.488213856305765e+000
	1.615318790967583e+001
	3.687689765252632e+000
	4.889552209963259e-001
	-1.167721804057637e+000
	2.975841727744788e-004
	-3.050052748605663e-002

 30	7.695775770898074e-008
	3.296674378108747e+000
	1.669711252628267e+001
	3.686549697807011e+000
	5.353557712394998e-001
	-1.803479518134192e+000
	3.539193143465014e-004
	-2.704102500077438e-002

 31	8.459075389803040e-008
	3.010515938671110e+000
	1.690027143549096e+001
	3.684674213672439e+000
	1.406239497649473e-001
	-2.979560520738943e+000
	4.380835620136220e-004
	-2.071377538610021e-002

 32	9.438831689817729e-008
	2.742077434209348e+000
	1.591901119818888e+001
	3.682268277565770e+000
	1.193883106019791e-001
	-4.578017056353199e+000
	5.170360628790754e-004
	-1.324011915901453e-002

 33	1.078768947914403e-007
	2.637216449943965e+000
	1.273118172969248e+001
	3.678958528192452e+000
	1.017621692916813e+000
	-6.548071637189000e+000
	5.478775258580607e-004
	-6.937332690787886e-003

 34	1.233339027689978e-007
	2.931710888764868e+000
	7.607040266728344e+000
	3.675169434371561e+000
	1.644213819453589e+000
	-7.753192027121052e+000
	4.612615087232277e-004
	-7.696330247628148e-003

 35	1.348177942306676e-007
	3.372770640002634e+000
	4.056046777213361e+000
	3.672356827900706e+000
	1.020686864620852e+000
	-7.526125314225340e+000
	3.315380480409108e-004
	-1.451543007494706e-002

 36	1.454232313492594e-007
	3.650113008433579e+000
	2.797972254968068e+000
	3.666730782896281e+000
	5.316941814913010e-001
	-6.399523066961698e+000
	-5.467045304940785e-003
	-2.417011481427529e-002

 37	1.574720830238183e-007
	3.924076554029229e+000
	3.258667556078605e+000
	3.660342614507048e+000
	-4.692146208043568e-002
	-4.325331558328039e+000
	1.673372960081521e-004
	-3.553691797109816e-002

 38	1.714324106742479e-007
	4.286457371188547e+000
	5.059644520061688e+000
	3.656936287451273e+000
	-5.317423459759922e-001
	-1.499435847952044e+000
	6.281515615923217e-005
	-4.640711606058503e-002

 39	1.862873919722395e-007
	4.284562388870523e+000
	8.734710087286562e+000
	3.653317028087008e+000
	-7.115311702952960e-001
	1.150709839668334e+000
	6.335919862790473e-005
	-5.226770503769462e-002

 40	2.016561112328048e-007
	3.881511545478424e+000
	1.264090184615177e+001
	3.649576197423287e+000
	-5.339903171422805e-001
	2.762326132399032e+000
	1.819083775041891e-004
	-4.974925202835330e-002

 41	2.167782201612812e-007
	3.272127953072651e+000
	1.473502435742580e+001
	3.645898765187544e+000
	-1.885084650952229e-001
	2.960802546987051e+000
	3.611388491682327e-004
	-4.033267362722145e-002

 42	2.314584396912679e-007
	2.739046783701975e+000
	1.413317146211462e+001
	3.642332337434215e+000
	2.610344314287695e-001
	2.075117725853567e+000
	5.179274288556399e-004
	-2.927580407992201e-002

 43	2.463824472686795e-007
	2.492322241080323e+000
	1.114557498244008e+001
	3.638710259603030e+000
	6.182289690118726e-001
	6.874361642235345e-001
	5.904934683054197e-004
	-2.168876775185463e-002

 44	2.630560104008270e-007
	2.702287510412499e+000
	6.750730071442524e+000
	3.634667821980389e+000
	6.503005414250018e-001
	-5.960256210087215e-001
	5.287389725065414e-004
	-2.207578427705715e-002

 45	2.783977308176462e-007
	3.271145189747234e+000
	3.778929386263020e+000
	3.630952251585353e+000
	4.472672736863378e-001
	-9.939826488702718e-001
	3.614278863293408e-004
	-3.066543784466309e-002

 46	2.937241540491304e-007
	3.959061883950537e+000
	3.384425995029068e+000
	3.627244178572581e+000
	1.118995542404635e-001
	-5.086171661150426e-001
	1.590994449870292e-004
	-4.281846973546005e-002

 47	3.114440326919857e-007
	4.517708055675059e+000
	4.488866109385617e+000
	3.638874484218057e+000
	-2.383784773793418e-001
	7.704910152823464e-001
	-1.831382012429106e-004
	-5.574264892146914e-002

 48	3.310763181312680e-007
	4.508189568897104e+000
	8.306818277552807e+000
	3.657155771347825e+000
	-4.019089337413797e-001
	2.242566967251854e+000
	-5.703040386513536e-005
	-6.267115235271571e-002

 49	3.510763181312681e-007
	3.869108812253257e+000
	1.447655597416888e+001
	3.657795929599498e+000
	-1.362288962525230e+000
	2.730194328202669e+000
	1.855562420862641e-004
	-5.576654872010568e-002

 50	3.635991816544424e-007
	3.347179322747975e+000
	1.644647046329748e+001
	3.654743465171159e+000
	-2.042466946488082e+000
	2.003060879086615e+000
	3.390649184809580e-004
	-4.627821950324063e-002

 51	3.760089235330271e-007
	2.922779100334736e+000
	1.556648550138100e+001
	3.651721087199185e+000
	-1.118792017840984e-001
	2.620259688364537e-001
	4.638885132741827e-004
	-3.807730401188455e-002

 52	3.878429252739197e-007
	2.723684655113982e+000
	1.302504050942930e+001
	3.648841258281344e+000
	1.671373655440735e+000
	-1.972634981778229e+000
	5.224457008988492e-004
	-3.281676908653165e-002

 53	3.972656640298095e-007
	2.750772886161193e+000
	1.036473786647749e+001
	3.646549839465950e+000
	1.593523244007700e+000
	-3.661935048464068e+000
	5.144785714035205e-004
	-3.099015929178226e-002

 54	4.073813894535737e-007
	2.961830050707090e+000
	7.229980376328694e+000
	3.644091501932727e+000
	1.515109414813216e+000
	-4.916321588045101e+000
	4.524029312130279e-004
	-3.228608133998416e-002

 55	4.176390137274954e-007
	3.329359568651425e+000
	4.475035123208041e+000
	3.641600372271513e+000
	1.188348760702678e+000
	-5.336104729659361e+000
	3.443060106780860e-004
	-3.716895475056177e-002

 56	4.336264230297124e-007
	3.880453799832186e+000
	3.043214552692244e+000
	3.635322613824972e+000
	4.278883212172056e-001
	-4.220199422563205e+000
	-2.819876567192001e-003
	-4.855561115795853e-002

 57	4.500695897598672e-007
	4.319116657358866e+000
	4.853506249683663e+000
	3.628877762452325e+000
	-3.465652643382291e-001
	-1.455400483931812e+000
	5.314202793024747e-005
	-5.903793984226627e-002

 58	4.658663294176801e-007
	4.502626756331431e+000
	7.213866487034002e+000
	3.634177938335640e+000
	-7.805789538795200e-001
	1.590965989082469e+000
	-1.150948584970057e-004
	-6.459550941014797e-002

 59	4.819115731904341e-007
	4.217591960054049e+000
	1.055220060613053e+001
	3.639551048254894e+000
	-7.807276841590769e-001
	3.868443164493211e+000
	8.306069239268077e-005
	-6.444161846167905e-002

 60	4.980868331098863e-007
	3.606030215118810e+000
	1.411993980127814e+001
	3.635628491893113e+000
	-6.341524011077360e-001
	4.596610561527094e+000
	2.629323002144440e-004
	-5.666136902034346e-002

 61	5.087499427919434e-007
	3.169822070056114e+000
	1.490082328871507e+001
	3.633044936492519e+000
	-1.533089730319340e+000
	4.070435487293672e+000
	3.912288151188964e-004
	-4.923544640308972e-002

 62	5.198045050914949e-007
	2.812931585426325e+000
	1.413568156177223e+001
	3.630368474623126e+000
	-8.085071163935296e-001
	2.661214106987340e+000
	4.961966046618388e-004
	-4.339077069634404e-002

 63	5.305160951534150e-007
	2.641194662313594e+000
	1.218688950551954e+001
	3.627776932015304e+000
	1.087362178748733e+000
	6.750463254200906e-001
	5.467074627929780e-004
	-4.023866216691491e-002

 64	5.400846880357916e-007
	2.668211720021963e+000
	9.739969888129267e+000
	3.625463488525636e+000
	1.416368428894857e+000
	-1.215155608959748e+000
	5.387612668460995e-004
	-3.965402551916968e-002

 65	5.503004522013492e-007
	2.883154591264360e+000
	6.980256846707160e+000
	3.622995203705981e+000
	1.470310653383684e+000
	-2.874928711079222e+000
	4.755427721121336e-004
	-4.188504499564598e-002

 66	5.604440325488845e-007
	3.248311512719767e+000
	4.708950114066649e+000
	3.620546022291197e+000
	1.274476941177993e+000
	-3.820409011150546e+000
	3.681436745623379e-004
	-4.682259947959364e-002

 67	5.772015412938703e-007
	3.992196962161926e+000
	3.282299876504792e+000
	3.616492144121713e+000
	5.989936866324581e-001
	-3.525595749853260e+000
	1.357633106203182e-004
	-5.776171502480669e-002

 68	5.946353129362305e-007
	4.507888620182172e+000
	3.688154668791349e+000
	3.627635849822283e+000
	-2.151536099126656e-001
	-1.212501206030087e+000
	-1.608526505802677e-003
	-6.940038765711057e-002

 69	6.123518276509905e-007
	4.525418627616940e+000
	6.004406935932416e+000
	3.651739245791077e+000
	-7.501176837541796e-001
	1.924462719146952e+000
	-1.504062710924597e-004
	-7.821876237724323e-002

 70	6.315667471924891e-007
	4.027239706786827e+000
	1.221002317246638e+001
	3.660924785639360e+000
	-7.967923650593798e-001
	4.430641844312446e+000
	1.390471528169568e-004
	-7.629754946739134e-002

 71	6.465284008994349e-007
	3.412930876510066e+000
	1.623046868559332e+001
	3.657275039925874e+000
	-3.171306833476725e+000
	4.658198519012713e+000
	3.197262258530370e-004
	-6.665340372780915e-002

 72	6.596121680296931e-007
	2.935696674756763e+000
	1.535160305888751e+001
	3.654086368256250e+000
	-1.209118168055205e+000
	2.978979912524345e+000
	4.600892264411127e-004
	-5.981368539587027e-002

 73	6.718180646457686e-007
	2.691856424591613e+000
	1.298745273998170e+001
	3.651114150845365e+000
	2.133637378382160e+000
	8.552523324475825e-002
	5.318069451984986e-004
	-5.675273220213063e-002

 74	6.806801548289566e-007
	2.683853735029901e+000
	1.152059131194996e+001
	3.648957687678621e+000
	1.894065709595856e+000
	-2.247474647950884e+000
	5.341606759695361e-004
	-5.532429504589149e-002

 75	6.902898629819537e-007
	2.842191129647627e+000
	9.439444842725390e+000
	3.646620741693984e+000
	1.991721723887675e+000
	-4.369398002406811e+000
	4.875908516229766e-004
	-5.460538677892982e-002

 76	7.003236222854531e-007
	3.165509434420973e+000
	7.182694839735778e+000
	3.644182269608519e+000
	1.763356623161925e+000
	-5.711168313760381e+000
	3.924972296661528e-004
	-5.536212574528681e-002

 77	7.164800888518400e-007
	3.869213484135874e+000
	4.650961141154080e+000
	3.640259241750560e+000
	9.224834427780140e-001
	-5.538857083153443e+000
	1.855254464092487e-004
	-5.981427295863157e-002

 78	7.345924784524072e-007
	4.511113076830861e+000
	3.706649438528803e+000
	3.644757850999117e+000
	-2.158938763065668e-001
	-2.474140586379421e+000
	-8.609686892462470e-004
	-6.825837734573269e-002

 79	7.521442800741262e-007
	4.561264722324101e+000
	3.737490481973346e+000
	3.672089948973087e+000
	-9.664700999350881e-001
	1.727609818156604e+000
	-1.982522811312518e-003
	-7.930953868140866e-002

 80	7.690075877933067e-007
	4.130810686833770e+000
	7.753929686229959e+000
	3.690041098027775e+000
	-1.071633885074167e+000
	4.978344631174242e+000
	1.085850938193078e-004
	-8.715777092180702e-002

 81	7.873655507986351e-007
	3.414000577488496e+000
	1.511658773159885e+001
	3.685527750828595e+000
	-1.926101690690218e+000
	5.953109000793351e+000
	3.194116068304248e-004
	-8.283437053630223e-002

 82	7.984883646401354e-007
	2.982218079202181e+000
	1.742057193422795e+001
	3.682795867763605e+000
	-1.039001469914209e+000
	4.882482155973690e+000
	4.464064624324082e-004
	-7.379116288988150e-002

 83	8.088891464642353e-007
	2.697084454109632e+000
	1.728205307254526e+001
	3.680243155681223e+000
	7.656991513770795e-002
	2.851795180611802e+000
	5.302692937711739e-004
	-6.413101178208988e-002

 84	8.209435295745383e-007
	2.592890036265160e+000
	1.516029266992712e+001
	3.677286806183115e+000
	9.538607693661727e-001
	-1.557333031819947e-001
	5.609147088679184e-004
	-5.454025744252318e-002

 85	8.320518757772839e-007
	2.739785558267507e+000
	1.175363811160630e+001
	3.674564575835906e+000
	1.999068074527590e+000
	-2.845892226405788e+000
	5.177101398699535e-004
	-4.889914753400039e-002

 86	8.429656142165040e-007
	3.082681503021736e+000
	7.664407292594337e+000
	3.671891998984652e+000
	1.818924197939531e+000
	-4.717416920690009e+000
	4.168583866351328e-004
	-4.773977383363265e-002

 87	8.533837972668174e-007
	3.526440705284640e+000
	4.073608190990324e+000
	3.669342588126143e+000
	1.422639538192252e+000
	-5.381180849865007e+000
	2.863409697240055e-004
	-5.143812864041526e-002

 88	8.660308359991877e-007
	3.702072058162311e+000
	2.837782011577323e+000
	3.660373414366332e+000
	6.814131776657115e-001
	-4.594678247948508e+000
	-9.062670176195872e-003
	-5.942659470953174e-002

 89	8.796971730432646e-007
	3.755288151492388e+000
	3.906135019674863e+000
	3.650689859944990e+000
	-1.667000323032997e-001
	-2.181700685072120e+000
	2.190328966709260e-004
	-6.744617462212103e-002

 90	8.933872803169643e-007
	3.935471964474225e+000
	5.502100087899562e+000
	3.647359490661981e+000
	-8.046592001452266e-001
	1.008916506362809e+000
	1.660376587860057e-004
	-7.303173797266793e-002

 91	9.115515522406406e-007
	3.641676312517268e+000
	9.492812575766898e+000
	3.642945249636131e+000
	-1.063437453925080e+000
	4.667249091747605e+000
	2.524496584028341e-004
	-7.454165788129491e-002

 92	9.294730764830716e-007
	2.963513226685004e+000
	1.306842617685565e+001
	3.638595236238445e+000
	-1.198791491914946e+000
	6.185012711422281e+000
	4.519078852843958e-004
	-6.832061703249273e-002

 93	9.425760256790326e-007
	2.471221136707221e+000
	1.389558404959721e+001
	3.635418201952862e+000
	-2.231392599022270e+000
	5.411302520973148e+000
	5.966996782628894e-004
	-6.273951884792588e-002

 94	9.553067414956081e-007
	2.180204903234001e+000
	1.251085245117944e+001
	3.632334078987399e+000
	-4.028919070786063e-001
	3.048564328344865e+000
	6.822926873021676e-004
	-6.094488890855442e-002

 95	9.678078020329892e-007
	2.172169380307385e+000
	1.014413159665276e+001
	3.629308138020393e+000
	2.048056239715636e+000
	-2.140625665972999e-001
	6.846560740445540e-004
	-6.220525231935623e-002

 96	9.764090215694508e-007
	2.336885669986253e+000
	8.553439872611364e+000
	3.627227636110295e+000
	1.965029244579791e+000
	-2.440137862512696e+000
	6.362101045697816e-004
	-6.392241960226464e-002

 97	9.862053001738369e-007
	2.666273452259755e+000
	6.856418629345994e+000
	3.624859520567523e+000
	1.924640706279264e+000
	-4.365910085952376e+000
	5.393313427193708e-004
	-6.650326233672271e-002

 98	9.954667929375993e-007
	3.068041101651116e+000
	5.673743958213196e+000
	3.622622103946124e+000
	1.614067607814498e+000
	-5.292941424874559e+000
	4.211643850276226e-004
	-6.931790439682378e-002

 99	1.011094802260733e-006
	3.768095500737304e+000
	5.193201317850221e+000
	3.618849777609869e+000
	7.215322124384991e-001
	-4.668497011099708e+000
	2.152660304707565e-004
	-7.349659683148437e-002

 100	1.027318486687603e-006
	4.247506860883902e+000
	6.731241557726509e+000
	3.614938237899881e+000
	-3.003895021423362e-001
	-1.710466610504693e+000
	7.425760307928908e-005
	-7.499712630339460e-002

 101	1.043531789467290e-006
	4.264145970542085e+000
	9.501372294276802e+000
	3.611034421774601e+000
	-9.823987667907508e-001
	2.158455335128161e+000
	6.935666237831151e-005
	-7.179189932264803e-002

 102	1.059135929007390e-006
	3.850914213586181e+000
	1.178578154783977e+001
	3.607280861165025e+000
	-2.371169586085343e+000
	5.028326647024981e+000
	1.909075919302311e-004
	-6.633607102270965e-002

 103	1.072915449159475e-006
	3.295899025901818e+000
	1.239865350582131e+001
	3.603968609251695e+000
	-2.223211960733678e+000
	5.637048589293868e+000
	3.541473547338109e-004
	-6.369170425278047e-002

 104	1.084593165550014e-006
	2.846766793155460e+000
	1.170330977155870e+001
	3.601163959427965e+000
	-3.458563540429349e-002
	4.382426601221596e+000
	4.862450704475607e-004
	-6.407266440477182e-002

 105	1.095442702524001e-006
	2.561674472787632e+000
	1.052264811554703e+001
	3.598560170322053e+000
	1.250110748607545e+000
	2.135162359649375e+000
	5.700957522956074e-004
	-6.547738247400539e-002

 106	1.106540884048427e-006
	2.475631146043225e+000
	9.131536880293171e+000
	3.595898656653130e+000
	1.603896111968165e+000
	-4.824638969741347e-001
	5.954026118810962e-004
	-6.724901331809827e-002

 107	1.119676949653245e-006
	2.673024458997617e+000
	7.483757522521771e+000
	3.592750970881212e+000
	1.692048636052197e+000
	-2.977629479133237e+000
	5.373457530840897e-004
	-6.952965413483761e-002

 108	1.132972500918276e-006
	3.145171548681919e+000
	6.394981468427992e+000
	3.589567874599909e+000
	1.292572920766591e+000
	-4.069029109508042e+000
	3.984789599642269e-004
	-7.164216394455882e-002

 109	1.149314796843510e-006
	3.878242337253529e+000
	6.417333513351992e+000
	3.585659218450275e+000
	4.342925597383256e-001
	-3.102760555941531e+000
	1.828699030542724e-004
	-7.283277980776066e-002

 110	1.165961636203562e-006
	4.453755633286075e+000
	6.985760307014608e+000
	3.589671878138257e+000
	-4.437919484290216e-001
	-1.939877060000947e-001
	-8.149258379079594e-005
	-7.251592554935653e-002

 111	1.180230068356641e-006
	4.539539818113912e+000
	3.738966155068592e+000
	3.633452294233346e+000
	-9.046308705605322e-001
	2.772972112517076e+000
	-1.210498505180763e-003
	-7.709013683248185e-002

 112	1.190688470802114e-006
	4.326903043485856e+000
	3.514923280548981e+000
	3.659953663907059e+000
	-9.854592866300811e-001
	4.602113613164040e+000
	-9.872350727226503e-004
	-8.512831575303910e-002

 113	1.200406787337904e-006
	4.011474752466444e+000
	7.915603541521726e+000
	3.657079990344315e+000
	-8.674202432880573e-001
	5.713325500930967e+000
	1.436838998456480e-004
	-9.009198960564499e-002

 114	1.207103454892576e-006
	3.757007352706610e+000
	1.083218509390621e+001
	3.655447671454556e+000
	-3.867859892135074e+000
	6.020037135779719e+000
	2.185272561775753e-004
	-9.084793605282318e-002

 115	1.213650698168196e-006
	3.485549271283815e+000
	1.268485227864581e+001
	3.653852479245829e+000
	-3.691902731788018e+000
	5.793745544899921e+000
	2.983678707547122e-004
	-9.117745398857002e-002

 116	1.220124105568772e-006
	3.218223274828098e+000
	1.389867059216209e+001
	3.652275961048467e+000
	6.984583580456860e-002
	4.998270164072958e+000
	3.769931655768499e-004
	-9.045700590535766e-002

 117	1.225354680196951e-006
	3.018532261595860e+000
	1.487120999325514e+001
	3.651002616260555e+000
	4.601199218274452e-001
	4.007544536559227e+000
	4.357258178981360e-004
	-8.849455343783523e-002

 118	1.231095560870607e-006
	2.830304910738554e+000
	1.558487603308995e+001
	3.649605552248787e+000
	1.700534270883951e-001
	2.673035603304576e+000
	4.910868045331363e-004
	-8.534620709574244e-002

 119	1.239183083836914e-006
	2.643115958762338e+000
	1.578447137211328e+001
	3.647638331331410e+000
	9.315206100812290e-002
	5.201488983773046e-001
	5.461423792158110e-004
	-8.023502918573884e-002

 120	1.251532589102279e-006
	2.580062444691877e+000
	1.465072825591582e+001
	3.644636465130288e+000
	1.309316157811082e-001
	-2.956695910973319e+000
	5.646875294023357e-004
	-7.341116298596548e-002

 121	1.266068091357833e-006
	2.867908351153346e+000
	1.173898597628695e+001
	3.641106400733614e+000
	1.492115643672780e+000
	-6.531520361981769e+000
	4.800269651873967e-004
	-6.893321091392748e-002

 122	1.280042335112160e-006
	3.418697818412360e+000
	8.070351196123134e+000
	3.637715866179512e+000
	2.387473408396031e+000
	-8.445425213201947e+000
	3.180300582787954e-004
	-6.842157379385300e-002

 123	1.291093879533327e-006
	3.918010699360313e+000
	5.338749107067667e+000
	3.635036694579926e+000
	1.521869770133862e+000
	-8.361915986285499e+000
	1.711733248548758e-004
	-7.087085609276485e-002

 124	1.302742751139209e-006
	4.363068420733653e+000
	3.584872444514897e+000
	3.632090400303919e+000
	6.903385116591387e-001
	-6.676987158632007e+000
	-2.074273898627493e-004
	-7.616401733642986e-002

 125	1.317985774051541e-006
	4.490137557736610e+000
	3.647438100074200e+000
	3.631538779556968e+000
	-3.827620101699178e-001
	-2.772711208542520e+000
	-3.347331226647682e-003
	-8.480846708203711e-002

 126	1.333993917279540e-006
	4.179135484291451e+000
	6.443688882258108e+000
	3.631131084157075e+000
	-1.066278562055411e+000
	1.886631693565033e+000
	9.437177810057984e-005
	-9.154768641933625e-002

 127	1.350674964919230e-006
	3.628157456084669e+000
	1.079812862960131e+001
	3.627095268632086e+000
	-1.495378515747654e+000
	5.457766564235611e+000
	2.564242847910569e-004
	-9.188652600482410e-002

 128	1.364214571508205e-006
	3.071994873292824e+000
	1.323844957346766e+001
	3.623822782704247e+000
	-2.785412654691211e+000
	6.301115992018117e+000
	4.200015185733264e-004
	-8.906808151308283e-002

 129	1.377302709368363e-006
	2.645182369635517e+000
	1.285141768331014e+001
	3.620662222087629e+000
	-7.630528690601497e-001
	4.867806193911340e+000
	5.455346083477197e-004
	-8.810510301625396e-002

 130	1.387450726405670e-006
	2.486779577942279e+000
	1.190083922644551e+001
	3.618213547598503e+000
	1.631448871238034e+000
	2.494130088056260e+000
	5.921236640918787e-004
	-8.835965524442493e-002

 131	1.390525400045000e-006
	2.476065043057345e+000
	1.176752641909757e+001
	3.617471968547521e+000
	1.672525324144367e+000
	1.645293133583619e+000
	5.952749977689575e-004
	-8.829817090905841e-002

 132	1.393540495982448e-006
	2.483206773181478e+000
	1.157655347993972e+001
	3.616744906616813e+000
	1.762965731215449e+000
	8.003037869936154e-001
	5.931744887028578e-004
	-8.811150890513650e-002

 133	1.396362393970422e-006
	2.505712584494860e+000
	1.134737711021690e+001
	3.616064564933324e+000
	1.854382541775268e+000
	1.523183564498659e-002
	5.865551321594387e-004
	-8.783806411916457e-002

 134	1.402006189946370e-006
	2.595300417234645e+000
	1.076432619589589e+001
	3.614704265465121e+000
	1.991204499660552e+000
	-1.470972102524006e+000
	5.602057688253170e-004
	-8.707648751165299e-002

 135	1.413293781898266e-006
	2.931352540926413e+000
	9.286910131714835e+000
	3.611985201401990e+000
	1.971860237599981e+000
	-3.762778207030935e+000
	4.613669067637105e-004
	-8.516399348452368e-002

 136	1.429662908400021e-006
	3.640812313722077e+000
	7.167423978243270e+000
	3.608045681439199e+000
	1.305899951213638e+000
	-4.762882845816467e+000
	2.527022641638094e-004
	-8.279674866072920e-002

 137	1.448312499902026e-006
	4.373933994686261e+000
	6.014766478105396e+000
	3.603728401833330e+000
	1.091311359491738e-001
	-2.507369054908298e+000
	3.531628212641302e-005
	-8.179323667231515e-002

 138	1.465754080892418e-006
	4.522513956939379e+000
	3.707607171825638e+000
	3.628511781607102e+000
	-8.273799136476399e-001
	1.559505323947807e+000
	-1.516794295392365e-003
	-8.656305406260220e-002

 139	1.482141693722659e-006
	4.154442396459380e+000
	4.536223588431625e+000
	3.651618888453665e+000
	-1.157092226690424e+000
	5.217626107191304e+000
	1.017152556464507e-004
	-9.610514960015686e-002

 140	1.497380773016847e-006
	3.581139274674759e+000
	1.027507961240434e+001
	3.647904746591796e+000
	-1.925421329623764e+000
	7.024926750920849e+000
	2.702531612681358e-004
	-1.003712909795646e-001

 141	1.507849812006900e-006
	3.151036166969910e+000
	1.354644803450098e+001
	3.645359630953726e+000
	-2.872610453288532e+000
	6.832973085735482e+000
	3.967540794279773e-004
	-9.876311412288140e-002

 142	1.517866552709964e-006
	2.811896352804016e+000
	1.467249356652928e+001
	3.642926135330038e+000
	-8.219355792179037e-001
	5.352920814640375e+000
	4.965010853963253e-004
	-9.581298629196369e-002

 143	1.528224655804687e-006
	2.609404424620511e+000
	1.471228254118559e+001
	3.640411416621180e+000
	8.890146069769838e-001
	2.758503274419768e+000
	5.560575353043135e-004
	-9.166517409265654e-002

 144	1.538118130703452e-006
	2.598007432546384e+000
	1.429320852642765e+001
	3.638011120264445e+000
	1.102325718992514e-001
	-2.269825238573304e-001
	5.594095913980246e-004
	-8.745209137834349e-002

 145	1.547528666824115e-006
	2.758036639385386e+000
	1.307484803095654e+001
	3.635729460314678e+000
	9.713095194486114e-001
	-3.087650376013999e+000
	5.123421760811625e-004
	-8.426935310897783e-002

 146	1.558549725013750e-006
	3.123109340784082e+000
	1.088681262962913e+001
	3.633059135577797e+000
	2.248735630620107e+000
	-5.891798583130990e+000
	4.049678492194925e-004
	-8.158271304912780e-002

 147	1.569480522642042e-006
	3.598582412142419e+000
	8.250032367290327e+000
	3.630412617583748e+000
	2.241687154321306e+000
	-7.507892708859542e+000
	2.651228246413756e-004
	-8.023419033878705e-002

 148	1.580341066414105e-006
	4.080254567965135e+000
	5.827016104390992e+000
	3.627785018604191e+000
	1.565106991996068e+000
	-7.575591402570152e+000
	1.234545378547142e-004
	-8.088866133999889e-002

 149	1.592792539341810e-006
	4.484625873755625e+000
	3.686919728651112e+000